#!/bin/bash
#########################################################
# FileName   :gentag.sh
# Author     :Quanbo Liu
# Email      :quanbo.liu@enflame-tech.com
# Time       :2021-02-21 23:33:44
# Version    :V1.0
# Description:
#########################################################
TARGET='/tmp/cscope.files'
find ./ -name "*.h" -o -name "*.cpp" -o -name "*.cc" > ${TARGET}
ctags -R --fields=+niazS --extra=+q --c++-kinds=+px --c-kinds=+px --output-format=e-ctags *
mv tags .tags
cscope -bq -i ${TARGET}
rm ${TARGET}
